<?xml version="1.0"?>
<VTKFile type="UnstructuredGrid"  version="0.1"  >
<UnstructuredGrid>
<Piece  NumberOfPoints="45" NumberOfCells="64">
<Points>
<DataArray  type="Float64"  NumberOfComponents="3"  format="ascii">0 0 0  0.125 0 0  0.25 0 0  0.375 0 0  0.5 0 0  0.625 0 0  0.75 0 0  0.875 0 0  1 0 0  0 0.125 0  0.125 0.125 0  0.25 0.125 0  0.375 0.125 0  0.5 0.125 0  0.625 0.125 0  0.75 0.125 0  0.875 0.125 0  1 0.125 0  0 0.25 0  0.125 0.25 0  0.25 0.25 0  0.375 0.25 0  0.5 0.25 0  0.625 0.25 0  0.75 0.25 0  0.875 0.25 0  1 0.25 0  0 0.375 0  0.125 0.375 0  0.25 0.375 0  0.375 0.375 0  0.5 0.375 0  0.625 0.375 0  0.75 0.375 0  0.875 0.375 0  1 0.375 0  0 0.5 0  0.125 0.5 0  0.25 0.5 0  0.375 0.5 0  0.5 0.5 0  0.625 0.5 0  0.75 0.5 0  0.875 0.5 0  1 0.5 0  </DataArray>
</Points>
<Cells>
<DataArray  type="UInt32"  Name="connectivity"  format="ascii">0 1 10  0 9 10  1 2 11  1 10 11  2 3 12  2 11 12  3 4 13  3 12 13  4 5 14  4 13 14  5 6 15  5 14 15  6 7 16  6 15 16  7 8 17  7 16 17  9 10 19  9 18 19  10 11 20  10 19 20  11 12 21  11 20 21  12 13 22  12 21 22  13 14 23  13 22 23  14 15 24  14 23 24  15 16 25  15 24 25  16 17 26  16 25 26  18 19 28  18 27 28  19 20 29  19 28 29  20 21 30  20 29 30  21 22 31  21 30 31  22 23 32  22 31 32  23 24 33  23 32 33  24 25 34  24 33 34  25 26 35  25 34 35  27 28 37  27 36 37  28 29 38  28 37 38  29 30 39  29 38 39  30 31 40  30 39 40  31 32 41  31 40 41  32 33 42  32 41 42  33 34 43  33 42 43  34 35 44  34 43 44  </DataArray>
<DataArray  type="UInt32"  Name="offsets"  format="ascii">3 6 9 12 15 18 21 24 27 30 33 36 39 42 45 48 51 54 57 60 63 66 69 72 75 78 81 84 87 90 93 96 99 102 105 108 111 114 117 120 123 126 129 132 135 138 141 144 147 150 153 156 159 162 165 168 171 174 177 180 183 186 189 192 </DataArray>
<DataArray  type="UInt8"  Name="types"  format="ascii">5 5 5 5 5 5 5 5 5 5 5 5 5 5 5 5 5 5 5 5 5 5 5 5 5 5 5 5 5 5 5 5 5 5 5 5 5 5 5 5 5 5 5 5 5 5 5 5 5 5 5 5 5 5 5 5 5 5 5 5 5 5 5 5 </DataArray>
</Cells>
<PointData  Vectors="f_17-0"> 
<DataArray  type="Float64"  Name="f_17-0"  NumberOfComponents="3" format="ascii">5.0464588637374732e-03 -6.7993024098034705e-15 0.0000000000000000e+00  1.6442662115645011e-02 3.0757833463443656e+00 0.0000000000000000e+00  2.7914623502207837e-02 5.6699683212132035e+00 0.0000000000000000e+00  3.5286786476856999e-02 7.3960432588535179e+00 0.0000000000000000e+00  3.7328712281070438e-02 7.9942689823460000e+00 0.0000000000000000e+00  3.3706410221932354e-02 7.3754542918174009e+00 0.0000000000000000e+00  2.4967271364566338e-02 5.6357157039769952e+00 0.0000000000000000e+00  1.2424183320978331e-02 3.0430713281972146e+00 0.0000000000000000e+00  -6.2935598704350651e-15 -3.1729687751273766e-16 0.0000000000000000e+00  -5.9038136636625131e-04 -6.7648278018900187e-15 0.0000000000000000e+00  5.0498180403509814e-03 3.0678189324936196e+00 0.0000000000000000e+00  9.3458091848536273e-03 5.6643765887774435e+00 0.0000000000000000e+00  1.1755628185221838e-02 7.3957836937011185e+00 0.0000000000000000e+00  1.2081378224877686e-02 8.0000158210502956e+00 0.0000000000000000e+00  1.0317762124472477e-02 7.3863054400370798e+00 0.0000000000000000e+00  6.6559503153030049e-03 5.6493060346329109e+00 0.0000000000000000e+00  1.4226261730263168e-03 3.0549954533266002e+00 0.0000000000000000e+00  -2.5436932969711847e-03 -3.1735462444392744e-16 0.0000000000000000e+00  -2.9920650317824230e-03 -6.7477800494394956e-15 0.0000000000000000e+00  2.5789583338767315e-03 3.0619021364003869e+00 0.0000000000000000e+00  6.9455569366537427e-03 5.6571633051996546e+00 0.0000000000000000e+00  9.5020520928785959e-03 7.3911953443174250e+00 0.0000000000000000e+00  1.0151953696741876e-02 7.9999683568114079e+00 0.0000000000000000e+00  8.8873545774638928e-03 7.3907929913181185e+00 0.0000000000000000e+00  5.8045377825191903e-03 5.6564042536455466e+00 0.0000000000000000e+00  9.5970073612350326e-04 3.0608729013105123e+00 0.0000000000000000e+00  -2.7811781570883285e-03 -3.1815639675736441e-16 0.0000000000000000e+00  -3.2402045588821021e-03 -6.7465521979884153e-15 0.0000000000000000e+00  1.6133791868091795e-03 3.0556459703981091e+00 0.0000000000000000e+00  6.0756495271650510e-03 5.6497875262042214e+00 0.0000000000000000e+00  9.0668553406325850e-03 7.3865485629207726e+00 0.0000000000000000e+00  1.0317561243806095e-02 7.9999837884731217e+00 0.0000000000000000e+00  9.7253540547166725e-03 7.3954753834370583e+00 0.0000000000000000e+00  7.3539665502230745e-03 5.6638248886792759e+00 0.0000000000000000e+00  3.2239694135210426e-03 3.0670542913906900e+00 0.0000000000000000e+00  -5.0781215675675521e-04 -3.1977777099829874e-16 0.0000000000000000e+00  -3.1729687761678348e-16 -6.2935598724988057e-15 0.0000000000000000e+00  -1.2232372200218032e-15 3.0430713287578550e+00 0.0000000000000000e+00  -1.9450299477117247e-15 5.6357157055140288e+00 0.0000000000000000e+00  -2.3716065583585356e-15 7.3754542933002529e+00 0.0000000000000000e+00  -2.4373962213287696e-15 7.9942689831178368e+00 0.0000000000000000e+00  -2.1318905645585482e-15 7.3960432590623393e+00 0.0000000000000000e+00  -1.5009814560584586e-15 5.6699683206509421e+00 0.0000000000000000e+00  -6.3957771903230546e-16 3.0757833459038260e+00 0.0000000000000000e+00  0.0000000000000000e+00 5.0464587811380746e-03 0.0000000000000000e+00  </DataArray> 
</PointData> 
</Piece>
</UnstructuredGrid>
</VTKFile>